 Gaussian 09, Revision C.01,
 Gaussian 09:  EM64L-G09RevC.01 23-Sep-2011

 -----------------------------------------
 # pop=full b3lyp/6-31g* geom=connectivity
 -----------------------------------------

 99/5=1,9=1/99;
 -------------------
 Title Card Required
 -------------------
 Charge =  0 Multiplicity = 1

                         Standard orientation:
 ---------------------------------------------------------------------
 Center     Atomic      Atomic             Coordinates (Angstroms)
 Number     Number       Type             X           Y           Z
 ---------------------------------------------------------------------
      1          6           0        1.171565   -1.449122    0.000000
      2          1           0        2.100090   -0.917387    0.000000
      3          1           0        1.169918   -2.519120    0.000000
      4          6           0       -0.002371   -0.772039    0.000000
      5          1           0       -0.930895   -1.303774    0.000000
      6          6           0        0.000000    0.767959    0.000000
      7          1           0        0.928525    1.299694    0.000000
      8          6           0       -1.169893    1.452004    0.000000
      9          1           0       -2.101560    0.925796    0.000000
     10          1           0       -1.161888    2.521974    0.000000
 ---------------------------------------------------------------------

 SCF Done:  E(RB3LYP) =  -155.984900948     A.U. after   12 cycles

 The electronic state is 1-A'.
 Alpha  occ. eigenvalues --  -10.19692 -10.19662 -10.18039 -10.18019  -0.79031
 Alpha  occ. eigenvalues --   -0.72826  -0.59467  -0.55718  -0.46395  -0.45690
 Alpha  occ. eigenvalues --   -0.39204  -0.38748  -0.34547  -0.30926  -0.22852
 Alpha virt. eigenvalues --   -0.01812   0.07033   0.12183   0.12862   0.13125
 Alpha virt. eigenvalues --    0.18055   0.18563   0.21244   0.31699   0.32339
 Alpha virt. eigenvalues --    0.37310   0.47083   0.52229   0.53507   0.58038

 Mulliken atomic charges:
              1
     1  C   -0.342964
     2  H    0.144193
     3  H    0.143025
     4  C   -0.077364
     5  H    0.133775
     6  C   -0.077740
     7  H    0.133375
     8  C   -0.343187
     9  H    0.143854
    10  H    0.143033
 Sum of Mulliken atomic charges =   0.00000

 Dipole moment (field-independent basis, Debye):
    X=              0.0021    Y=             -0.0041    Z=              0.0000  Tot=              0.0046
 Quadrupole moment (field-independent basis, Debye-Ang):
   XX=            -22.6652   YY=            -22.6676   ZZ=            -28.0289
   XY=              0.5307   XZ=              0.0000   YZ=              0.0000

 Normal termination of Gaussian 09 at Tue Mar  2 12:14:43 2021.
