 Gaussian 09, Revision C.01,
 Gaussian 09:  EM64L-G09RevC.01 23-Sep-2011

 -----------------------------------------
 # pop=full b3lyp/6-31g* geom=connectivity
 -----------------------------------------

 99/5=1,9=1/99;
 -------------------
 Title Card Required
 -------------------
 Charge =  0 Multiplicity = 1

                         Standard orientation:
 ---------------------------------------------------------------------
 Center     Atomic      Atomic             Coordinates (Angstroms)
 Number     Number       Type             X           Y           Z
 ---------------------------------------------------------------------
      1          6           0       -0.365820    4.336239    0.000000
      2          1           0       -1.434969    4.293567    0.000000
      3          1           0        0.129923    5.284468    0.000000
      4          6           0        0.362578    3.193434    0.000000
      5          1           0        1.431727    3.236105    0.000000
      6          6           0       -0.350921    1.828692    0.000000
      7          1           0       -1.420070    1.786021    0.000000
      8          6           0        0.370674    0.681579    0.000000
      9          1           0        1.440057    0.717898    0.000000
     10          6           0       -0.350921   -0.678899    0.000000
     11          1           0       -1.420305   -0.715217    0.000000
     12          6           0        0.363846   -1.830279    0.000000
     13          1           0        1.433426   -1.800314    0.000000
     14          6           0       -0.365820   -3.186445    0.000000
     15          1           0       -1.435400   -3.216409    0.000000
     16          6           0        0.342094   -4.342051    0.000000
     17          1           0        1.411833   -4.318443    0.000000
     18          1           0       -0.170471   -5.281294    0.000000
 ---------------------------------------------------------------------

 SCF Done:  E(RB3LYP) =  -310.784987290     A.U. after   14 cycles

 The electronic state is 1-A'.
 Alpha  occ. eigenvalues --  -10.19760 -10.19727 -10.19645 -10.19625 -10.19513
 Alpha  occ. eigenvalues --  -10.19505 -10.17999 -10.17962  -0.80912  -0.78512
 Alpha  occ. eigenvalues --   -0.74943  -0.70900  -0.60880  -0.56883  -0.56416
 Alpha  occ. eigenvalues --   -0.55328  -0.47721  -0.45864  -0.45170  -0.41163
 Alpha  occ. eigenvalues --   -0.40057  -0.38442  -0.38075  -0.36124  -0.33197
 Alpha  occ. eigenvalues --   -0.33049  -0.30172  -0.25552  -0.20179
 Alpha virt. eigenvalues --   -0.04429   0.01552   0.06611   0.08876   0.10161
 Alpha virt. eigenvalues --    0.12776   0.12847   0.13074   0.14650   0.14876
 Alpha virt. eigenvalues --    0.17090   0.18632   0.19528   0.20475   0.26767

 Mulliken atomic charges:
              1
     1  C   -0.344848
     2  H    0.143436
     3  H    0.142610
     4  C   -0.078149
     5  H    0.132735
     6  C   -0.128344
     7  H    0.131129
     8  C   -0.128681
     9  H    0.131136
    10  C   -0.129424
    11  H    0.131032
    12  C   -0.127828
    13  H    0.131178
    14  C   -0.078621
    15  H    0.132250
    16  C   -0.345203
    17  H    0.143061
    18  H    0.142531
 Sum of Mulliken atomic charges =   0.00000

 Dipole moment (field-independent basis, Debye):
    X=              0.0021    Y=              0.0204    Z=              0.0000  Tot=              0.0205
 Quadrupole moment (field-independent basis, Debye-Ang):
   XX=            -42.7170   YY=            -45.4263   ZZ=            -54.0114
   XY=              0.6664   XZ=              0.0000   YZ=              0.0000

 Normal termination of Gaussian 09 at Tue Mar  2 12:00:29 2021.
